SCI:    1
##  1    Nb layer1 PDOS electron   A
 -0.0001500000          0.00000        0.50206        1.40591        1.28726        1.17782        5.89306        5.03200        3.66567        1.54945        2.62017       23.13340
 -0.0001500000          0.00000        0.50206        1.40591        1.28726        1.17782        5.89306        5.03200        3.66567        1.54945        2.62017       23.13340
 -0.0001200000          0.00000        0.88947        2.48478        2.32568        2.07686       11.88806        9.95200        6.72262        2.66748        4.61280       43.61976
 -0.0001200000          0.00000        0.88947        2.48478        2.32568        2.07686       11.88806        9.95200        6.72262        2.66748        4.61280       43.61976
 -0.0000900000          0.00000        0.01555        0.04350        0.03887        0.03675        0.15554        0.13316        0.09859        0.05114        0.08075        0.65384
 -0.0000900000          0.00000        0.01555        0.04350        0.03887        0.03675        0.15554        0.13316        0.09859        0.05114        0.08075        0.65384
 -0.0000600000          0.00000        0.00513        0.01436        0.01307        0.01209        0.05586        0.04786        0.03532        0.01622        0.02663        0.22653
 -0.0000600000          0.00000        0.00513        0.01436        0.01307        0.01209        0.05586        0.04786        0.03532        0.01622        0.02663        0.22653
 -0.0000300000          0.00000        0.00340        0.00951        0.00871        0.00802        0.03740        0.03230        0.02380        0.01068        0.01761        0.15145
 -0.0000300000          0.00000        0.00340        0.00951        0.00871        0.00802        0.03740        0.03230        0.02380        0.01068        0.01761        0.15145
  0.0000000000          0.00000        0.00302        0.00845        0.00776        0.00714        0.03313        0.02879        0.02110        0.00946        0.01555        0.13440
  0.0000000000          0.00000        0.00302        0.00845        0.00776        0.00714        0.03313        0.02879        0.02110        0.00946        0.01555        0.13440
  0.0000300000          0.00000        0.00338        0.00944        0.00867        0.00800        0.03674        0.03201        0.02327        0.01058        0.01726        0.14935
  0.0000300000          0.00000        0.00338        0.00944        0.00867        0.00800        0.03674        0.03201        0.02327        0.01058        0.01726        0.14935
  0.0000600000          0.00000        0.00509        0.01419        0.01296        0.01202        0.05417        0.04710        0.03401        0.01600        0.02579        0.22133
  0.0000600000          0.00000        0.00509        0.01419        0.01296        0.01202        0.05417        0.04710        0.03401        0.01600        0.02579        0.22133
  0.0000900000          0.00000        0.01547        0.04314        0.03863        0.03663        0.15098        0.13105        0.09544        0.05064        0.07878        0.64075
  0.0000900000          0.00000        0.01547        0.04314        0.03863        0.03663        0.15098        0.13105        0.09544        0.05064        0.07878        0.64075
  0.0001200000          0.00000        0.88627        2.47508        2.31435        2.07275       11.68303        9.87542        6.62650        2.65279        4.55291       43.13911
  0.0001200000          0.00000        0.88627        2.47508        2.31435        2.07275       11.68303        9.87542        6.62650        2.65279        4.55291       43.13911
  0.0001500000          0.00000        0.49524        1.38004        1.26503        1.16681        5.67182        4.90136        3.41207        1.51392        2.49107       22.29736
  0.0001500000          0.00000        0.49524        1.38004        1.26503        1.16681        5.67182        4.90136        3.41207        1.51392        2.49107       22.29736
##  2    Nb layer2 PDOS electron   A
 -0.0001500000          0.00000        0.52863        1.30782        1.22291        1.24866        5.38738        5.16399        3.51312        1.43059        2.35452       22.15761
 -0.0001500000          0.00000        0.52863        1.30782        1.22291        1.24866        5.38738        5.16399        3.51312        1.43059        2.35452       22.15761
 -0.0001200000          0.00000        0.92961        2.31653        2.20318        2.18340       10.78869       10.35243        6.41385        2.51043        4.15079       41.84891
 -0.0001200000          0.00000        0.92961        2.31653        2.20318        2.18340       10.78869       10.35243        6.41385        2.51043        4.15079       41.84891
 -0.0000900000          0.00000        0.01644        0.03974        0.03737        0.03955        0.14145        0.13638        0.09948        0.04625        0.07229        0.62896
 -0.0000900000          0.00000        0.01644        0.03974        0.03737        0.03955        0.14145        0.13638        0.09948        0.04625        0.07229        0.62896
 -0.0000600000          0.00000        0.00543        0.01325        0.01255        0.01288        0.05105        0.04916        0.03536        0.01491        0.02393        0.21852
 -0.0000600000          0.00000        0.00543        0.01325        0.01255        0.01288        0.05105        0.04916        0.03536        0.01491        0.02393        0.21852
 -0.0000300000          0.00000        0.00361        0.00879        0.00836        0.00853        0.03430        0.03320        0.02394        0.00987        0.01587        0.14647
 -0.0000300000          0.00000        0.00361        0.00879        0.00836        0.00853        0.03430        0.03320        0.02394        0.00987        0.01587        0.14647
  0.0000000000          0.00000        0.00321        0.00780        0.00743        0.00758        0.03042        0.02961        0.02130        0.00878        0.01404        0.13017
  0.0000000000          0.00000        0.00321        0.00780        0.00743        0.00758        0.03042        0.02961        0.02130        0.00878        0.01404        0.13017
  0.0000300000          0.00000        0.00358        0.00869        0.00828        0.00849        0.03369        0.03294        0.02352        0.00984        0.01560        0.14464
  0.0000300000          0.00000        0.00358        0.00869        0.00828        0.00849        0.03369        0.03294        0.02352        0.00984        0.01560        0.14464
  0.0000600000          0.00000        0.00538        0.01301        0.01238        0.01279        0.04948        0.04846        0.03432        0.01485        0.02326        0.21394
  0.0000600000          0.00000        0.00538        0.01301        0.01238        0.01279        0.04948        0.04846        0.03432        0.01485        0.02326        0.21394
  0.0000900000          0.00000        0.01634        0.03922        0.03703        0.03936        0.13710        0.13444        0.09706        0.04612        0.07046        0.61713
  0.0000900000          0.00000        0.01634        0.03922        0.03703        0.03936        0.13710        0.13444        0.09706        0.04612        0.07046        0.61713
  0.0001200000          0.00000        0.92577        2.29841        2.19768        2.17666       10.58207       10.26818        6.33055        2.51134        4.09658       41.38723
  0.0001200000          0.00000        0.92577        2.29841        2.19768        2.17666       10.58207       10.26818        6.33055        2.51134        4.09658       41.38723
  0.0001500000          0.00000        0.51942        1.26182        1.20844        1.23179        5.12692        5.05331        3.33213        1.42451        2.23620       21.39454
  0.0001500000          0.00000        0.51942        1.26182        1.20844        1.23179        5.12692        5.05331        3.33213        1.42451        2.23620       21.39454
##  3    Nb layer3 PDOS electron   A
 -0.0001500000          0.00000        0.51839        1.38791        1.28353        1.27625        5.80626        5.19940        3.45685        1.54061        2.21107       22.68028
 -0.0001500000          0.00000        0.51839        1.38791        1.28353        1.27625        5.80626        5.19940        3.45685        1.54061        2.21107       22.68028
 -0.0001200000          0.00000        0.91762        2.45266        2.30777        2.24026       11.41967       10.42772        6.54653        2.70093        3.94376       42.95690
 -0.0001200000          0.00000        0.91762        2.45266        2.30777        2.24026       11.41967       10.42772        6.54653        2.70093        3.94376       42.95690
 -0.0000900000          0.00000        0.01595        0.04318        0.04005        0.04063        0.15438        0.13699        0.09726        0.04934        0.06879        0.64658
 -0.0000900000          0.00000        0.01595        0.04318        0.04005        0.04063        0.15438        0.13699        0.09726        0.04934        0.06879        0.64658
 -0.0000600000          0.00000        0.00529        0.01423        0.01335        0.01320        0.05521        0.04935        0.03413        0.01596        0.02276        0.22349
 -0.0000600000          0.00000        0.00529        0.01423        0.01335        0.01320        0.05521        0.04935        0.03413        0.01596        0.02276        0.22349
 -0.0000300000          0.00000        0.00352        0.00944        0.00891        0.00875        0.03695        0.03328        0.02300        0.01055        0.01513        0.14953
 -0.0000300000          0.00000        0.00352        0.00944        0.00891        0.00875        0.03695        0.03328        0.02300        0.01055        0.01513        0.14953
  0.0000000000          0.00000        0.00313        0.00839        0.00795        0.00779        0.03268        0.02964        0.02052        0.00938        0.01342        0.13291
  0.0000000000          0.00000        0.00313        0.00839        0.00795        0.00779        0.03268        0.02964        0.02052        0.00938        0.01342        0.13291
  0.0000300000          0.00000        0.00351        0.00939        0.00890        0.00874        0.03616        0.03294        0.02283        0.01052        0.01493        0.14791
  0.0000300000          0.00000        0.00351        0.00939        0.00890        0.00874        0.03616        0.03294        0.02283        0.01052        0.01493        0.14791
  0.0000600000          0.00000        0.00527        0.01412        0.01334        0.01317        0.05322        0.04847        0.03364        0.01588        0.02227        0.21940
  0.0000600000          0.00000        0.00527        0.01412        0.01334        0.01317        0.05322        0.04847        0.03364        0.01588        0.02227        0.21940
  0.0000900000          0.00000        0.01590        0.04294        0.04013        0.04052        0.14921        0.13466        0.09551        0.04918        0.06758        0.63562
  0.0000900000          0.00000        0.01590        0.04294        0.04013        0.04052        0.14921        0.13466        0.09551        0.04918        0.06758        0.63562
  0.0001200000          0.00000        0.91663        2.44893        2.31600        2.23957       11.20202       10.31877        6.45808        2.69705        3.90828       42.50533
  0.0001200000          0.00000        0.91663        2.44893        2.31600        2.23957       11.20202       10.31877        6.45808        2.69705        3.90828       42.50533
  0.0001500000          0.00000        0.51548        1.37592        1.29541        1.27338        5.49290        5.05272        3.34367        1.52803        2.14602       22.02352
  0.0001500000          0.00000        0.51548        1.37592        1.29541        1.27338        5.49290        5.05272        3.34367        1.52803        2.14602       22.02352
##  4    Nb layer4 PDOS electron   A
 -0.0001500000          0.00000        0.46723        1.30977        1.37091        1.12588        4.85789        4.98006        3.35815        1.78576        2.04518       21.30083
 -0.0001500000          0.00000        0.46723        1.30977        1.37091        1.12588        4.85789        4.98006        3.35815        1.78576        2.04518       21.30083
 -0.0001200000          0.00000        0.82412        2.30915        2.45126        1.99914        9.58714        9.78026        6.75644        3.08398        3.71477       40.50625
 -0.0001200000          0.00000        0.82412        2.30915        2.45126        1.99914        9.58714        9.78026        6.75644        3.08398        3.71477       40.50625
 -0.0000900000          0.00000        0.01456        0.04052        0.04223        0.03476        0.12913        0.13240        0.09903        0.05899        0.06313        0.61475
 -0.0000900000          0.00000        0.01456        0.04052        0.04223        0.03476        0.12913        0.13240        0.09903        0.05899        0.06313        0.61475
 -0.0000600000          0.00000        0.00481        0.01346        0.01397        0.01151        0.04678        0.04745        0.03381        0.01872        0.02124        0.21175
 -0.0000600000          0.00000        0.00481        0.01346        0.01397        0.01151        0.04678        0.04745        0.03381        0.01872        0.02124        0.21175
 -0.0000300000          0.00000        0.00320        0.00894        0.00927        0.00766        0.03154        0.03200        0.02267        0.01233        0.01420        0.14181
 -0.0000300000          0.00000        0.00320        0.00894        0.00927        0.00766        0.03154        0.03200        0.02267        0.01233        0.01420        0.14181
  0.0000000000          0.00000        0.00285        0.00795        0.00826        0.00683        0.02796        0.02850        0.02029        0.01096        0.01262        0.12622
  0.0000000000          0.00000        0.00285        0.00795        0.00826        0.00683        0.02796        0.02850        0.02029        0.01096        0.01262        0.12622
  0.0000300000          0.00000        0.00320        0.00888        0.00926        0.00765        0.03087        0.03166        0.02275        0.01231        0.01404        0.14062
  0.0000300000          0.00000        0.00320        0.00888        0.00926        0.00765        0.03087        0.03166        0.02275        0.01231        0.01404        0.14062
  0.0000600000          0.00000        0.00480        0.01331        0.01393        0.01149        0.04512        0.04660        0.03396        0.01868        0.02087        0.20876
  0.0000600000          0.00000        0.00480        0.01331        0.01393        0.01149        0.04512        0.04660        0.03396        0.01868        0.02087        0.20876
  0.0000900000          0.00000        0.01455        0.04024        0.04215        0.03465        0.12488        0.13020        0.09882        0.05893        0.06230        0.60672
  0.0000900000          0.00000        0.01455        0.04024        0.04215        0.03465        0.12488        0.13020        0.09882        0.05893        0.06230        0.60672
  0.0001200000          0.00000        0.82465        2.30107        2.45312        1.99813        9.41120        9.69764        6.68651        3.08427        3.68681       40.14339
  0.0001200000          0.00000        0.82465        2.30107        2.45312        1.99813        9.41120        9.69764        6.68651        3.08427        3.68681       40.14339
  0.0001500000          0.00000        0.46666        1.28875        1.36702        1.12225        4.60241        4.82471        3.41746        1.78102        2.01005       20.88032
  0.0001500000          0.00000        0.46666        1.28875        1.36702        1.12225        4.60241        4.82471        3.41746        1.78102        2.01005       20.88032
##  5    Nb layer5 PDOS electron   A
 -0.0001500000          0.00000        0.50674        1.20119        1.31979        1.24856        4.86353        4.51391        3.22092        1.75844        2.04430       20.67737
 -0.0001500000          0.00000        0.50674        1.20119        1.31979        1.24856        4.86353        4.51391        3.22092        1.75844        2.04430       20.67737
 -0.0001200000          0.00000        0.89159        2.12730        2.34635        2.19045        9.49444        8.64675        6.05476        3.04099        3.62832       38.42095
 -0.0001200000          0.00000        0.89159        2.12730        2.34635        2.19045        9.49444        8.64675        6.05476        3.04099        3.62832       38.42095
 -0.0000900000          0.00000        0.01581        0.03710        0.04117        0.03967        0.12889        0.12174        0.09044        0.05830        0.06493        0.59806
 -0.0000900000          0.00000        0.01581        0.03710        0.04117        0.03967        0.12889        0.12174        0.09044        0.05830        0.06493        0.59806
 -0.0000600000          0.00000        0.00521        0.01225        0.01371        0.01291        0.04624        0.04330        0.03151        0.01851        0.02092        0.20455
 -0.0000600000          0.00000        0.00521        0.01225        0.01371        0.01291        0.04624        0.04330        0.03151        0.01851        0.02092        0.20455
 -0.0000300000          0.00000        0.00346        0.00813        0.00914        0.00856        0.03108        0.02918        0.02114        0.01219        0.01386        0.13674
 -0.0000300000          0.00000        0.00346        0.00813        0.00914        0.00856        0.03108        0.02918        0.02114        0.01219        0.01386        0.13674
  0.0000000000          0.00000        0.00308        0.00724        0.00815        0.00763        0.02757        0.02599        0.01881        0.01083        0.01232        0.12162
  0.0000000000          0.00000        0.00308        0.00724        0.00815        0.00763        0.02757        0.02599        0.01881        0.01083        0.01232        0.12162
  0.0000300000          0.00000        0.00345        0.00812        0.00912        0.00856        0.03052        0.02889        0.02091        0.01216        0.01379        0.13552
  0.0000300000          0.00000        0.00345        0.00812        0.00912        0.00856        0.03052        0.02889        0.02091        0.01216        0.01379        0.13552
  0.0000600000          0.00000        0.00520        0.01222        0.01366        0.01290        0.04483        0.04259        0.03090        0.01845        0.02075        0.20150
  0.0000600000          0.00000        0.00520        0.01222        0.01366        0.01290        0.04483        0.04259        0.03090        0.01845        0.02075        0.20150
  0.0000900000          0.00000        0.01579        0.03701        0.04117        0.03960        0.12515        0.12001        0.08869        0.05825        0.06408        0.58974
  0.0000900000          0.00000        0.01579        0.03701        0.04117        0.03960        0.12515        0.12001        0.08869        0.05825        0.06408        0.58974
  0.0001200000          0.00000        0.89185        2.12623        2.35488        2.19169        9.33733        8.60168        5.96076        3.04496        3.60623       38.11560
  0.0001200000          0.00000        0.89185        2.12623        2.35488        2.19169        9.33733        8.60168        5.96076        3.04496        3.60623       38.11560
  0.0001500000          0.00000        0.50691        1.19745        1.32453        1.24985        4.60490        4.37459        3.07698        1.75697        2.00084       20.09302
  0.0001500000          0.00000        0.50691        1.19745        1.32453        1.24985        4.60490        4.37459        3.07698        1.75697        2.00084       20.09302
##  6    Nb layer6 PDOS electron   A
 -0.0001500000          0.00000        0.42788        1.30875        1.22204        1.38573        4.01159        3.47914        3.08647        1.20958        1.85460       17.98578
 -0.0001500000          0.00000        0.42788        1.30875        1.22204        1.38573        4.01159        3.47914        3.08647        1.20958        1.85460       17.98578
 -0.0001200000          0.00000        0.74297        2.29451        2.18075        2.38842        7.79282        6.53980        5.20530        2.11735        3.17607       32.43800
 -0.0001200000          0.00000        0.74297        2.29451        2.18075        2.38842        7.79282        6.53980        5.20530        2.11735        3.17607       32.43800
 -0.0000900000          0.00000        0.01364        0.04094        0.03853        0.04551        0.10844        0.09587        0.08013        0.03874        0.06138        0.52320
 -0.0000900000          0.00000        0.01364        0.04094        0.03853        0.04551        0.10844        0.09587        0.08013        0.03874        0.06138        0.52320
 -0.0000600000          0.00000        0.00444        0.01347        0.01265        0.01452        0.03870        0.03404        0.02930        0.01262        0.01929        0.17904
 -0.0000600000          0.00000        0.00444        0.01347        0.01265        0.01452        0.03870        0.03404        0.02930        0.01262        0.01929        0.17904
 -0.0000300000          0.00000        0.00294        0.00895        0.00840        0.00959        0.02608        0.02297        0.02012        0.00835        0.01278        0.12018
 -0.0000300000          0.00000        0.00294        0.00895        0.00840        0.00959        0.02608        0.02297        0.02012        0.00835        0.01278        0.12018
  0.0000000000          0.00000        0.00262        0.00797        0.00750        0.00853        0.02320        0.02045        0.01799        0.00742        0.01136        0.10704
  0.0000000000          0.00000        0.00262        0.00797        0.00750        0.00853        0.02320        0.02045        0.01799        0.00742        0.01136        0.10704
  0.0000300000          0.00000        0.00294        0.00892        0.00844        0.00957        0.02572        0.02268        0.01980        0.00830        0.01268        0.11907
  0.0000300000          0.00000        0.00294        0.00892        0.00844        0.00957        0.02572        0.02268        0.01980        0.00830        0.01268        0.11907
  0.0000600000          0.00000        0.00443        0.01342        0.01274        0.01449        0.03778        0.03336        0.02850        0.01252        0.01905        0.17630
  0.0000600000          0.00000        0.00443        0.01342        0.01274        0.01449        0.03778        0.03336        0.02850        0.01252        0.01905        0.17630
  0.0000900000          0.00000        0.01363        0.04087        0.03879        0.04544        0.10615        0.09434        0.07810        0.03855        0.06054        0.51641
  0.0000900000          0.00000        0.01363        0.04087        0.03879        0.04544        0.10615        0.09434        0.07810        0.03855        0.06054        0.51641
  0.0001200000          0.00000        0.74380        2.29022        2.19590        2.38616        7.70229        6.50377        5.22331        2.11597        3.16718       32.32860
  0.0001200000          0.00000        0.74380        2.29022        2.19590        2.38616        7.70229        6.50377        5.22331        2.11597        3.16718       32.32860
  0.0001500000          0.00000        0.42676        1.29934        1.24309        1.38085        3.84805        3.37287        2.80602        1.20400        1.79504       17.37603
  0.0001500000          0.00000        0.42676        1.29934        1.24309        1.38085        3.84805        3.37287        2.80602        1.20400        1.79504       17.37603
##  7    Nb layer7 PDOS electron   A
 -0.0001500000          0.00000        0.36394        1.02297        0.85027        0.93687        2.64307        1.90333        3.13163        1.14501        0.86269       12.85977
 -0.0001500000          0.00000        0.36394        1.02297        0.85027        0.93687        2.64307        1.90333        3.13163        1.14501        0.86269       12.85977
 -0.0001200000          0.00000        0.63702        1.80040        1.54425        1.64186        5.14608        3.54037        5.42148        1.99474        1.49152       23.21771
 -0.0001200000          0.00000        0.63702        1.80040        1.54425        1.64186        5.14608        3.54037        5.42148        1.99474        1.49152       23.21771
 -0.0000900000          0.00000        0.01143        0.03189        0.02545        0.02994        0.07250        0.05359        0.09210        0.03795        0.02690        0.38176
 -0.0000900000          0.00000        0.01143        0.03189        0.02545        0.02994        0.07250        0.05359        0.09210        0.03795        0.02690        0.38176
 -0.0000600000          0.00000        0.00376        0.01050        0.00859        0.00970        0.02597        0.01872        0.03163        0.01202        0.00896        0.12985
 -0.0000600000          0.00000        0.00376        0.01050        0.00859        0.00970        0.02597        0.01872        0.03163        0.01202        0.00896        0.12985
 -0.0000300000          0.00000        0.00250        0.00698        0.00574        0.00643        0.01757        0.01258        0.02144        0.00791        0.00603        0.08718
 -0.0000300000          0.00000        0.00250        0.00698        0.00574        0.00643        0.01757        0.01258        0.02144        0.00791        0.00603        0.08718
  0.0000000000          0.00000        0.00223        0.00621        0.00514        0.00572        0.01564        0.01120        0.01920        0.00704        0.00538        0.07776
  0.0000000000          0.00000        0.00223        0.00621        0.00514        0.00572        0.01564        0.01120        0.01920        0.00704        0.00538        0.07776
  0.0000300000          0.00000        0.00250        0.00697        0.00578        0.00642        0.01732        0.01245        0.02134        0.00793        0.00596        0.08665
  0.0000300000          0.00000        0.00250        0.00697        0.00578        0.00642        0.01732        0.01245        0.02134        0.00793        0.00596        0.08665
  0.0000600000          0.00000        0.00375        0.01048        0.00867        0.00967        0.02537        0.01839        0.03139        0.01206        0.00880        0.12859
  0.0000600000          0.00000        0.00375        0.01048        0.00867        0.00967        0.02537        0.01839        0.03139        0.01206        0.00880        0.12859
  0.0000900000          0.00000        0.01142        0.03179        0.02568        0.02985        0.07120        0.05279        0.09157        0.03804        0.02653        0.37886
  0.0000900000          0.00000        0.01142        0.03179        0.02568        0.02985        0.07120        0.05279        0.09157        0.03804        0.02653        0.37886
  0.0001200000          0.00000        0.63696        1.79997        1.55932        1.64098        5.11247        3.51687        5.47026        2.00356        1.49626       23.23665
  0.0001200000          0.00000        0.63696        1.79997        1.55932        1.64098        5.11247        3.51687        5.47026        2.00356        1.49626       23.23665
  0.0001500000          0.00000        0.36320        1.02040        0.86047        0.93432        2.57427        1.84565        3.04500        1.15354        0.83606       12.63290
  0.0001500000          0.00000        0.36320        1.02040        0.86047        0.93432        2.57427        1.84565        3.04500        1.15354        0.83606       12.63290
##  8    Nb layer8 PDOS electron   A
 -0.0001500000          0.00000        0.77603        0.84451        0.74725        0.95009        2.42651        3.24503        1.75102        2.17928        1.35060       14.27032
 -0.0001500000          0.00000        0.77603        0.84451        0.74725        0.95009        2.42651        3.24503        1.75102        2.17928        1.35060       14.27032
 -0.0001200000          0.00000        1.33285        1.45168        1.35497        1.60759        4.35813        5.99964        3.07340        3.83669        2.36795       25.38290
 -0.0001200000          0.00000        1.33285        1.45168        1.35497        1.60759        4.35813        5.99964        3.07340        3.83669        2.36795       25.38290
 -0.0000900000          0.00000        0.02412        0.02747        0.02293        0.02956        0.07095        0.09429        0.05536        0.06947        0.04310        0.43726
 -0.0000900000          0.00000        0.02412        0.02747        0.02293        0.02956        0.07095        0.09429        0.05536        0.06947        0.04310        0.43726
 -0.0000600000          0.00000        0.00809        0.00892        0.00772        0.00999        0.02460        0.03263        0.01813        0.02292        0.01430        0.14731
 -0.0000600000          0.00000        0.00809        0.00892        0.00772        0.00999        0.02460        0.03263        0.01813        0.02292        0.01430        0.14731
 -0.0000300000          0.00000        0.00540        0.00590        0.00517        0.00667        0.01650        0.02192        0.01206        0.01526        0.00957        0.09844